
     Program PWSCF v.7.5 starts on  5Jun2026 at  3: 5: 6 
        Git branch: HEAD
        Last git commit: 770a0b2d12928a67048e2f3da8d10d057e52179e
        Last git commit date: Tue Aug 19 09:57:12 2025 +0000
        Last git commit subject: Merge branch 'QE-7.5-RC' into 'master'

     This program is part of the open-source Quantum ESPRESSO suite
     for quantum simulation of materials; please cite
         "P. Giannozzi et al., J. Phys.:Condens. Matter 21 395502 (2009);
         "P. Giannozzi et al., J. Phys.:Condens. Matter 29 465901 (2017);
         "P. Giannozzi et al., J. Chem. Phys. 152 154105 (2020);
          URL http://www.quantum-espresso.org", 
     in publications or presentations arising from this work. More details at
     http://www.quantum-espresso.org/quote

     Parallel version (MPI), running on    32 processors

     MPI processes distributed on     1 nodes
     246592 MiB available memory on the printing compute node when the environment starts

     Reading input from xx.scf.in
Warning: card &CELL ignored
Warning: card     CELL_DYNAMICS     = 'BFGS' ignored
Warning: card     PRESS             =  0 ignored
Warning: card     CELL_FACTOR       =  1.2 ignored
Warning: card     PRESS_CONV_THR = 0.002 ignored

     Current dimensions of program PWSCF are:
     Max number of different atomic species (ntypx) = 10
     Max number of k-points (npk) =  40000
     Max angular momentum in pseudopotentials (lmaxx) =  4
     file Si_paw_PBE_norel.upf: wavefunction(s)  3S 3P renormalized

     IMPORTANT: XC functional enforced from input :
     Exchange-correlation= PBE
                           (   1   4   3   4   0   0   0)
     Any further DFT definition will be discarded
     Please, verify this is what you really want

     Message from routine setup:
     using ibrav=0 with symmetry is DISCOURAGED, use correct ibrav instead

     K-points division:     npool     =       2
     R & G space division:  proc/nbgrp/npool/nimage =      16
     Subspace diagonalization in iterative solution of the eigenvalue problem:
     a serial algorithm will be used


     Parallelization info
     --------------------
     sticks:   dense  smooth     PW     G-vecs:    dense   smooth      PW
     Min          92      92     27                 2330     2330     362
     Max          93      93     28                 2333     2333     365
     Sum        1483    1483    433                37309    37309    5817

     Using Slab Decomposition



     bravais-lattice index     =            0
     lattice parameter (alat)  =       7.3082  a.u.
     unit-cell volume          =     276.0083 (a.u.)^3
     number of atoms/cell      =            2
     number of atomic types    =            1
     number of electrons       =         8.00
     number of Kohn-Sham states=            5
     kinetic-energy cutoff     =     100.0000  Ry
     charge density cutoff     =     400.0000  Ry
     scf convergence threshold =      1.0E-16
     mixing beta               =       0.7000
     number of iterations used =            8  plain     mixing
     Exchange-correlation= PBE
                           (   1   4   3   4   0   0   0)

     celldm(1)=   7.308233  celldm(2)=   0.000000  celldm(3)=   0.000000
     celldm(4)=   0.000000  celldm(5)=   0.000000  celldm(6)=   0.000000

     crystal axes: (cart. coord. in units of alat)
               a(1) = (   0.000000   0.707107   0.707107 )  
               a(2) = (   0.707107   0.000000   0.707107 )  
               a(3) = (   0.707107   0.707107   0.000000 )  

     reciprocal axes: (cart. coord. in units 2 pi/alat)
               b(1) = ( -0.707107  0.707107  0.707107 )  
               b(2) = (  0.707107 -0.707107  0.707107 )  
               b(3) = (  0.707107  0.707107 -0.707107 )  


     PseudoPot. # 1 for Si read from file:
     ../../pseudo/Si_paw_PBE_norel.upf
     MD5 check sum: c39c59da582df4a0d9f10159256ea34e
     Pseudo is Projector augmented-wave + core cor, Zval =  4.0
     Generated using &quot;atomic&quot; code by A. Dal Corso  v.6.3
     Shape of augmentation charge: PSQ
     Using radial grid of 1141 points,  6 beta functions with: 
                l(1) =   0
                l(2) =   0
                l(3) =   1
                l(4) =   1
                l(5) =   2
                l(6) =   2
     Q(r) pseudized with 0 coefficients 


     atomic species   valence    mass     pseudopotential
     Si                4.00    28.08550     Si( 1.00)

     48 Sym. Ops., with inversion, found (24 have fractional translation)


                                    s                        frac. trans.

      isym =  1     identity                                     

 cryst.   s( 1) = (     1          0          0      )
                  (     0          1          0      )
                  (     0          0          1      )

 cart.    s( 1) = (  1.0000000 -0.0000000  0.0000000 )
                  ( -0.0000000  1.0000000  0.0000000 )
                  ( -0.0000000  0.0000000  1.0000000 )


      isym =  2     180 deg rotation - cart. axis [0,0,1]        

 cryst.   s( 2) = (     0          1         -1      )
                  (     1          0         -1      )
                  (     0          0         -1      )

 cart.    s( 2) = ( -1.0000000  0.0000000  0.0000000 )
                  (  0.0000000 -1.0000000  0.0000000 )
                  (  0.0000000 -0.0000000  1.0000000 )


      isym =  3     180 deg rotation - cart. axis [0,1,0]        

 cryst.   s( 3) = (     0         -1          1      )
                  (     0         -1          0      )
                  (     1         -1          0      )

 cart.    s( 3) = ( -1.0000000 -0.0000000 -0.0000000 )
                  (  0.0000000  1.0000000 -0.0000000 )
                  (  0.0000000  0.0000000 -1.0000000 )


      isym =  4     180 deg rotation - cart. axis [1,0,0]        

 cryst.   s( 4) = (    -1          0          0      )
                  (    -1          0          1      )
                  (    -1          1          0      )

 cart.    s( 4) = (  1.0000000  0.0000000 -0.0000000 )
                  ( -0.0000000 -1.0000000 -0.0000000 )
                  ( -0.0000000 -0.0000000 -1.0000000 )


      isym =  5     180 deg rotation - cart. axis [1,1,0]        

 cryst.   s( 5) = (    -1          0          1      )    f =( -0.2500000 )
                  (     0         -1          1      )       ( -0.2500000 )
                  (     0          0          1      )       ( -0.2500000 )

 cart.    s( 5) = ( -0.0000000  1.0000000 -0.0000000 )    f =( -0.3535534 )
                  (  1.0000000 -0.0000000 -0.0000000 )       ( -0.3535534 )
                  (  0.0000000 -0.0000000 -1.0000000 )       ( -0.3535534 )


      isym =  6     180 deg rotation - cart. axis [1,-1,0]       

 cryst.   s( 6) = (     0         -1          0      )    f =( -0.2500000 )
                  (    -1          0          0      )       ( -0.2500000 )
                  (     0          0         -1      )       ( -0.2500000 )

 cart.    s( 6) = (  0.0000000 -1.0000000 -0.0000000 )    f =( -0.3535534 )
                  ( -1.0000000  0.0000000 -0.0000000 )       ( -0.3535534 )
                  ( -0.0000000  0.0000000 -1.0000000 )       ( -0.3535534 )


      isym =  7      90 deg rotation - cart. axis [0,0,-1]       

 cryst.   s( 7) = (     0          1          0      )    f =( -0.2500000 )
                  (     0          1         -1      )       ( -0.2500000 )
                  (    -1          1          0      )       ( -0.2500000 )

 cart.    s( 7) = (  0.0000000  1.0000000  0.0000000 )    f =( -0.3535534 )
                  ( -1.0000000 -0.0000000  0.0000000 )       ( -0.3535534 )
                  ( -0.0000000 -0.0000000  1.0000000 )       ( -0.3535534 )


      isym =  8      90 deg rotation - cart. axis [0,0,1]        

 cryst.   s( 8) = (     1          0         -1      )    f =( -0.2500000 )
                  (     1          0          0      )       ( -0.2500000 )
                  (     1         -1          0      )       ( -0.2500000 )

 cart.    s( 8) = ( -0.0000000 -1.0000000  0.0000000 )    f =( -0.3535534 )
                  (  1.0000000  0.0000000  0.0000000 )       ( -0.3535534 )
                  (  0.0000000  0.0000000  1.0000000 )       ( -0.3535534 )


      isym =  9     180 deg rotation - cart. axis [1,0,1]        

 cryst.   s( 9) = (    -1          1          0      )    f =( -0.2500000 )
                  (     0          1          0      )       ( -0.2500000 )
                  (     0          1         -1      )       ( -0.2500000 )

 cart.    s( 9) = (  0.0000000  0.0000000  1.0000000 )    f =( -0.3535534 )
                  (  0.0000000 -1.0000000 -0.0000000 )       ( -0.3535534 )
                  (  1.0000000 -0.0000000 -0.0000000 )       ( -0.3535534 )


      isym = 10     180 deg rotation - cart. axis [-1,0,1]       

 cryst.   s(10) = (     0          0         -1      )    f =( -0.2500000 )
                  (     0         -1          0      )       ( -0.2500000 )
                  (    -1          0          0      )       ( -0.2500000 )

 cart.    s(10) = ( -0.0000000  0.0000000 -1.0000000 )    f =( -0.3535534 )
                  ( -0.0000000 -1.0000000  0.0000000 )       ( -0.3535534 )
                  ( -1.0000000 -0.0000000  0.0000000 )       ( -0.3535534 )


      isym = 11      90 deg rotation - cart. axis [0,1,0]        

 cryst.   s(11) = (     0          0          1      )    f =( -0.2500000 )
                  (    -1          0          1      )       ( -0.2500000 )
                  (     0         -1          1      )       ( -0.2500000 )

 cart.    s(11) = ( -0.0000000 -0.0000000  1.0000000 )    f =( -0.3535534 )
                  ( -0.0000000  1.0000000 -0.0000000 )       ( -0.3535534 )
                  ( -1.0000000  0.0000000 -0.0000000 )       ( -0.3535534 )


      isym = 12      90 deg rotation - cart. axis [0,-1,0]       

 cryst.   s(12) = (     1         -1          0      )    f =( -0.2500000 )
                  (     1          0         -1      )       ( -0.2500000 )
                  (     1          0          0      )       ( -0.2500000 )

 cart.    s(12) = (  0.0000000 -0.0000000 -1.0000000 )    f =( -0.3535534 )
                  (  0.0000000  1.0000000  0.0000000 )       ( -0.3535534 )
                  (  1.0000000  0.0000000  0.0000000 )       ( -0.3535534 )


      isym = 13     180 deg rotation - cart. axis [0,1,1]        

 cryst.   s(13) = (     1          0          0      )    f =( -0.2500000 )
                  (     1         -1          0      )       ( -0.2500000 )
                  (     1          0         -1      )       ( -0.2500000 )

 cart.    s(13) = ( -1.0000000  0.0000000 -0.0000000 )    f =( -0.3535534 )
                  (  0.0000000  0.0000000  1.0000000 )       ( -0.3535534 )
                  (  0.0000000  1.0000000  0.0000000 )       ( -0.3535534 )


      isym = 14     180 deg rotation - cart. axis [0,1,-1]       

 cryst.   s(14) = (    -1          0          0      )    f =( -0.2500000 )
                  (     0          0         -1      )       ( -0.2500000 )
                  (     0         -1          0      )       ( -0.2500000 )

 cart.    s(14) = ( -1.0000000 -0.0000000  0.0000000 )    f =( -0.3535534 )
                  (  0.0000000 -0.0000000 -1.0000000 )       ( -0.3535534 )
                  (  0.0000000 -1.0000000 -0.0000000 )       ( -0.3535534 )


      isym = 15      90 deg rotation - cart. axis [-1,0,0]       

 cryst.   s(15) = (     0         -1          1      )    f =( -0.2500000 )
                  (     0          0          1      )       ( -0.2500000 )
                  (    -1          0          1      )       ( -0.2500000 )

 cart.    s(15) = (  1.0000000 -0.0000000 -0.0000000 )    f =( -0.3535534 )
                  ( -0.0000000 -0.0000000  1.0000000 )       ( -0.3535534 )
                  ( -0.0000000 -1.0000000  0.0000000 )       ( -0.3535534 )


      isym = 16      90 deg rotation - cart. axis [1,0,0]        

 cryst.   s(16) = (     0          1         -1      )    f =( -0.2500000 )
                  (    -1          1          0      )       ( -0.2500000 )
                  (     0          1          0      )       ( -0.2500000 )

 cart.    s(16) = (  1.0000000  0.0000000  0.0000000 )    f =( -0.3535534 )
                  ( -0.0000000  0.0000000 -1.0000000 )       ( -0.3535534 )
                  ( -0.0000000  1.0000000 -0.0000000 )       ( -0.3535534 )


      isym = 17     120 deg rotation - cart. axis [-1,-1,-1]     

 cryst.   s(17) = (     0          0          1      )
                  (     1          0          0      )
                  (     0          1          0      )

 cart.    s(17) = (  0.0000000  1.0000000 -0.0000000 )
                  (  0.0000000 -0.0000000  1.0000000 )
                  (  1.0000000 -0.0000000  0.0000000 )


      isym = 18     120 deg rotation - cart. axis [-1,1,1]       

 cryst.   s(18) = (     1         -1          0      )
                  (     0         -1          1      )
                  (     0         -1          0      )

 cart.    s(18) = ( -0.0000000 -1.0000000 -0.0000000 )
                  ( -0.0000000  0.0000000  1.0000000 )
                  ( -1.0000000  0.0000000  0.0000000 )


      isym = 19     120 deg rotation - cart. axis [1,1,-1]       

 cryst.   s(19) = (    -1          1          0      )
                  (    -1          0          0      )
                  (    -1          0          1      )

 cart.    s(19) = ( -0.0000000  1.0000000  0.0000000 )
                  ( -0.0000000 -0.0000000 -1.0000000 )
                  ( -1.0000000 -0.0000000 -0.0000000 )


      isym = 20     120 deg rotation - cart. axis [1,-1,1]       

 cryst.   s(20) = (     0          0         -1      )
                  (     0          1         -1      )
                  (     1          0         -1      )

 cart.    s(20) = (  0.0000000 -1.0000000  0.0000000 )
                  (  0.0000000  0.0000000 -1.0000000 )
                  (  1.0000000  0.0000000 -0.0000000 )


      isym = 21     120 deg rotation - cart. axis [1,1,1]        

 cryst.   s(21) = (     0          1          0      )
                  (     0          0          1      )
                  (     1          0          0      )

 cart.    s(21) = ( -0.0000000  0.0000000  1.0000000 )
                  (  1.0000000  0.0000000 -0.0000000 )
                  (  0.0000000  1.0000000 -0.0000000 )


      isym = 22     120 deg rotation - cart. axis [-1,1,-1]      

 cryst.   s(22) = (    -1          0          1      )
                  (    -1          1          0      )
                  (    -1          0          0      )

 cart.    s(22) = (  0.0000000 -0.0000000  1.0000000 )
                  ( -1.0000000 -0.0000000 -0.0000000 )
                  ( -0.0000000 -1.0000000 -0.0000000 )


      isym = 23     120 deg rotation - cart. axis [1,-1,-1]      

 cryst.   s(23) = (     1          0         -1      )
                  (     0          0         -1      )
                  (     0          1         -1      )

 cart.    s(23) = (  0.0000000  0.0000000 -1.0000000 )
                  ( -1.0000000  0.0000000  0.0000000 )
                  ( -0.0000000  1.0000000  0.0000000 )


      isym = 24     120 deg rotation - cart. axis [-1,-1,1]      

 cryst.   s(24) = (     0         -1          0      )
                  (     1         -1          0      )
                  (     0         -1          1      )

 cart.    s(24) = ( -0.0000000 -0.0000000 -1.0000000 )
                  (  1.0000000 -0.0000000  0.0000000 )
                  (  0.0000000 -1.0000000  0.0000000 )


      isym = 25     inversion                                    

 cryst.   s(25) = (    -1          0          0      )    f =( -0.2500000 )
                  (     0         -1          0      )       ( -0.2500000 )
                  (     0          0         -1      )       ( -0.2500000 )

 cart.    s(25) = ( -1.0000000  0.0000000 -0.0000000 )    f =( -0.3535534 )
                  (  0.0000000 -1.0000000 -0.0000000 )       ( -0.3535534 )
                  (  0.0000000 -0.0000000 -1.0000000 )       ( -0.3535534 )


      isym = 26     inv. 180 deg rotation - cart. axis [0,0,1]   

 cryst.   s(26) = (     0         -1          1      )    f =( -0.2500000 )
                  (    -1          0          1      )       ( -0.2500000 )
                  (     0          0          1      )       ( -0.2500000 )

 cart.    s(26) = (  1.0000000 -0.0000000 -0.0000000 )    f =( -0.3535534 )
                  ( -0.0000000  1.0000000 -0.0000000 )       ( -0.3535534 )
                  ( -0.0000000  0.0000000 -1.0000000 )       ( -0.3535534 )


      isym = 27     inv. 180 deg rotation - cart. axis [0,1,0]   

 cryst.   s(27) = (     0          1         -1      )    f =( -0.2500000 )
                  (     0          1          0      )       ( -0.2500000 )
                  (    -1          1          0      )       ( -0.2500000 )

 cart.    s(27) = (  1.0000000  0.0000000  0.0000000 )    f =( -0.3535534 )
                  ( -0.0000000 -1.0000000  0.0000000 )       ( -0.3535534 )
                  ( -0.0000000 -0.0000000  1.0000000 )       ( -0.3535534 )


      isym = 28     inv. 180 deg rotation - cart. axis [1,0,0]   

 cryst.   s(28) = (     1          0          0      )    f =( -0.2500000 )
                  (     1          0         -1      )       ( -0.2500000 )
                  (     1         -1          0      )       ( -0.2500000 )

 cart.    s(28) = ( -1.0000000 -0.0000000  0.0000000 )    f =( -0.3535534 )
                  (  0.0000000  1.0000000  0.0000000 )       ( -0.3535534 )
                  (  0.0000000  0.0000000  1.0000000 )       ( -0.3535534 )


      isym = 29     inv. 180 deg rotation - cart. axis [1,1,0]   

 cryst.   s(29) = (     1          0         -1      )
                  (     0          1         -1      )
                  (     0          0         -1      )

 cart.    s(29) = (  0.0000000 -1.0000000  0.0000000 )
                  ( -1.0000000  0.0000000  0.0000000 )
                  ( -0.0000000  0.0000000  1.0000000 )


      isym = 30     inv. 180 deg rotation - cart. axis [1,-1,0]  

 cryst.   s(30) = (     0          1          0      )
                  (     1          0          0      )
                  (     0          0          1      )

 cart.    s(30) = ( -0.0000000  1.0000000  0.0000000 )
                  (  1.0000000 -0.0000000  0.0000000 )
                  (  0.0000000 -0.0000000  1.0000000 )


      isym = 31     inv.  90 deg rotation - cart. axis [0,0,-1]  

 cryst.   s(31) = (     0         -1          0      )
                  (     0         -1          1      )
                  (     1         -1          0      )

 cart.    s(31) = ( -0.0000000 -1.0000000 -0.0000000 )
                  (  1.0000000  0.0000000 -0.0000000 )
                  (  0.0000000  0.0000000 -1.0000000 )


      isym = 32     inv.  90 deg rotation - cart. axis [0,0,1]   

 cryst.   s(32) = (    -1          0          1      )
                  (    -1          0          0      )
                  (    -1          1          0      )

 cart.    s(32) = (  0.0000000  1.0000000 -0.0000000 )
                  ( -1.0000000 -0.0000000 -0.0000000 )
                  ( -0.0000000 -0.0000000 -1.0000000 )


      isym = 33     inv. 180 deg rotation - cart. axis [1,0,1]   

 cryst.   s(33) = (     1         -1          0      )
                  (     0         -1          0      )
                  (     0         -1          1      )

 cart.    s(33) = ( -0.0000000 -0.0000000 -1.0000000 )
                  ( -0.0000000  1.0000000  0.0000000 )
                  ( -1.0000000  0.0000000  0.0000000 )


      isym = 34     inv. 180 deg rotation - cart. axis [-1,0,1]  

 cryst.   s(34) = (     0          0          1      )
                  (     0          1          0      )
                  (     1          0          0      )

 cart.    s(34) = (  0.0000000 -0.0000000  1.0000000 )
                  (  0.0000000  1.0000000 -0.0000000 )
                  (  1.0000000  0.0000000 -0.0000000 )


      isym = 35     inv.  90 deg rotation - cart. axis [0,1,0]   

 cryst.   s(35) = (     0          0         -1      )
                  (     1          0         -1      )
                  (     0          1         -1      )

 cart.    s(35) = (  0.0000000  0.0000000 -1.0000000 )
                  (  0.0000000 -1.0000000  0.0000000 )
                  (  1.0000000 -0.0000000  0.0000000 )


      isym = 36     inv.  90 deg rotation - cart. axis [0,-1,0]  

 cryst.   s(36) = (    -1          1          0      )
                  (    -1          0          1      )
                  (    -1          0          0      )

 cart.    s(36) = ( -0.0000000  0.0000000  1.0000000 )
                  ( -0.0000000 -1.0000000 -0.0000000 )
                  ( -1.0000000 -0.0000000 -0.0000000 )


      isym = 37     inv. 180 deg rotation - cart. axis [0,1,1]   

 cryst.   s(37) = (    -1          0          0      )
                  (    -1          1          0      )
                  (    -1          0          1      )

 cart.    s(37) = (  1.0000000 -0.0000000  0.0000000 )
                  ( -0.0000000 -0.0000000 -1.0000000 )
                  ( -0.0000000 -1.0000000 -0.0000000 )


      isym = 38     inv. 180 deg rotation - cart. axis [0,1,-1]  

 cryst.   s(38) = (     1          0          0      )
                  (     0          0          1      )
                  (     0          1          0      )

 cart.    s(38) = (  1.0000000  0.0000000 -0.0000000 )
                  ( -0.0000000  0.0000000  1.0000000 )
                  ( -0.0000000  1.0000000  0.0000000 )


      isym = 39     inv.  90 deg rotation - cart. axis [-1,0,0]  

 cryst.   s(39) = (     0          1         -1      )
                  (     0          0         -1      )
                  (     1          0         -1      )

 cart.    s(39) = ( -1.0000000  0.0000000  0.0000000 )
                  (  0.0000000  0.0000000 -1.0000000 )
                  (  0.0000000  1.0000000 -0.0000000 )


      isym = 40     inv.  90 deg rotation - cart. axis [1,0,0]   

 cryst.   s(40) = (     0         -1          1      )
                  (     1         -1          0      )
                  (     0         -1          0      )

 cart.    s(40) = ( -1.0000000 -0.0000000 -0.0000000 )
                  (  0.0000000 -0.0000000  1.0000000 )
                  (  0.0000000 -1.0000000  0.0000000 )


      isym = 41     inv. 120 deg rotation - cart. axis [-1,-1,-1]

 cryst.   s(41) = (     0          0         -1      )    f =( -0.2500000 )
                  (    -1          0          0      )       ( -0.2500000 )
                  (     0         -1          0      )       ( -0.2500000 )

 cart.    s(41) = ( -0.0000000 -1.0000000  0.0000000 )    f =( -0.3535534 )
                  ( -0.0000000  0.0000000 -1.0000000 )       ( -0.3535534 )
                  ( -1.0000000  0.0000000 -0.0000000 )       ( -0.3535534 )


      isym = 42     inv. 120 deg rotation - cart. axis [-1,1,1]  

 cryst.   s(42) = (    -1          1          0      )    f =( -0.2500000 )
                  (     0          1         -1      )       ( -0.2500000 )
                  (     0          1          0      )       ( -0.2500000 )

 cart.    s(42) = (  0.0000000  1.0000000  0.0000000 )    f =( -0.3535534 )
                  (  0.0000000 -0.0000000 -1.0000000 )       ( -0.3535534 )
                  (  1.0000000 -0.0000000 -0.0000000 )       ( -0.3535534 )


      isym = 43     inv. 120 deg rotation - cart. axis [1,1,-1]  

 cryst.   s(43) = (     1         -1          0      )    f =( -0.2500000 )
                  (     1          0          0      )       ( -0.2500000 )
                  (     1          0         -1      )       ( -0.2500000 )

 cart.    s(43) = (  0.0000000 -1.0000000 -0.0000000 )    f =( -0.3535534 )
                  (  0.0000000  0.0000000  1.0000000 )       ( -0.3535534 )
                  (  1.0000000  0.0000000  0.0000000 )       ( -0.3535534 )


      isym = 44     inv. 120 deg rotation - cart. axis [1,-1,1]  

 cryst.   s(44) = (     0          0          1      )    f =( -0.2500000 )
                  (     0         -1          1      )       ( -0.2500000 )
                  (    -1          0          1      )       ( -0.2500000 )

 cart.    s(44) = ( -0.0000000  1.0000000 -0.0000000 )    f =( -0.3535534 )
                  ( -0.0000000 -0.0000000  1.0000000 )       ( -0.3535534 )
                  ( -1.0000000 -0.0000000  0.0000000 )       ( -0.3535534 )


      isym = 45     inv. 120 deg rotation - cart. axis [1,1,1]   

 cryst.   s(45) = (     0         -1          0      )    f =( -0.2500000 )
                  (     0          0         -1      )       ( -0.2500000 )
                  (    -1          0          0      )       ( -0.2500000 )

 cart.    s(45) = (  0.0000000 -0.0000000 -1.0000000 )    f =( -0.3535534 )
                  ( -1.0000000 -0.0000000  0.0000000 )       ( -0.3535534 )
                  ( -0.0000000 -1.0000000  0.0000000 )       ( -0.3535534 )


      isym = 46     inv. 120 deg rotation - cart. axis [-1,1,-1] 

 cryst.   s(46) = (     1          0         -1      )    f =( -0.2500000 )
                  (     1         -1          0      )       ( -0.2500000 )
                  (     1          0          0      )       ( -0.2500000 )

 cart.    s(46) = ( -0.0000000  0.0000000 -1.0000000 )    f =( -0.3535534 )
                  (  1.0000000  0.0000000  0.0000000 )       ( -0.3535534 )
                  (  0.0000000  1.0000000  0.0000000 )       ( -0.3535534 )


      isym = 47     inv. 120 deg rotation - cart. axis [1,-1,-1] 

 cryst.   s(47) = (    -1          0          1      )    f =( -0.2500000 )
                  (     0          0          1      )       ( -0.2500000 )
                  (     0         -1          1      )       ( -0.2500000 )

 cart.    s(47) = ( -0.0000000 -0.0000000  1.0000000 )    f =( -0.3535534 )
                  (  1.0000000 -0.0000000 -0.0000000 )       ( -0.3535534 )
                  (  0.0000000 -1.0000000 -0.0000000 )       ( -0.3535534 )


      isym = 48     inv. 120 deg rotation - cart. axis [-1,-1,1] 

 cryst.   s(48) = (     0          1          0      )    f =( -0.2500000 )
                  (    -1          1          0      )       ( -0.2500000 )
                  (     0          1         -1      )       ( -0.2500000 )

 cart.    s(48) = (  0.0000000  0.0000000  1.0000000 )    f =( -0.3535534 )
                  ( -1.0000000  0.0000000 -0.0000000 )       ( -0.3535534 )
                  ( -0.0000000  1.0000000 -0.0000000 )       ( -0.3535534 )


   Cartesian axes

     site n.     atom                  positions (alat units)
         1        Si     tau(   1) = (   0.0000000   0.0000000   0.0000000  )
         2        Si     tau(   2) = (   0.3535534   0.3535534   0.3535534  )

   Crystallographic axes

     site n.     atom                  positions (cryst. coord.)
         1        Si     tau(   1) = (  0.0000000  0.0000000  0.0000000  )
         2        Si     tau(   2) = (  0.2500000  0.2500000  0.2500000  )

     number of k points=    29
                       cart. coord. in units 2pi/alat
        k(    1) = (   0.0000000   0.0000000   0.0000000), wk =   0.0039062
        k(    2) = (   0.0883883   0.0883883  -0.0883883), wk =   0.0312500
        k(    3) = (   0.1767767   0.1767767  -0.1767767), wk =   0.0312500
        k(    4) = (   0.2651650   0.2651650  -0.2651650), wk =   0.0312500
        k(    5) = (  -0.3535534  -0.3535534   0.3535534), wk =   0.0156250
        k(    6) = (   0.1767767   0.0000000   0.0000000), wk =   0.0234375
        k(    7) = (   0.2651650   0.0883883  -0.0883883), wk =   0.0937500
        k(    8) = (   0.3535534   0.1767767  -0.1767767), wk =   0.0937500
        k(    9) = (  -0.2651650  -0.4419417   0.4419417), wk =   0.0937500
        k(   10) = (  -0.1767767  -0.3535534   0.3535534), wk =   0.0937500
        k(   11) = (  -0.0883883  -0.2651650   0.2651650), wk =   0.0937500
        k(   12) = (   0.0000000  -0.1767767   0.1767767), wk =   0.0468750
        k(   13) = (   0.3535534   0.0000000   0.0000000), wk =   0.0234375
        k(   14) = (   0.4419417   0.0883883  -0.0883883), wk =   0.0937500
        k(   15) = (  -0.1767767  -0.5303301   0.5303301), wk =   0.0937500
        k(   16) = (  -0.0883883  -0.4419417   0.4419417), wk =   0.0937500
        k(   17) = (   0.0000000  -0.3535534   0.3535534), wk =   0.0468750
        k(   18) = (   0.5303301  -0.0000000   0.0000000), wk =   0.0234375
        k(   19) = (  -0.0883883  -0.6187184   0.6187184), wk =   0.0937500
        k(   20) = (   0.0000000  -0.5303301   0.5303301), wk =   0.0468750
        k(   21) = (  -0.7071068   0.0000000   0.0000000), wk =   0.0117188
        k(   22) = (   0.3535534   0.1767767   0.0000000), wk =   0.0937500
        k(   23) = (  -0.2651650  -0.4419417   0.6187184), wk =   0.1875000
        k(   24) = (  -0.1767767  -0.3535534   0.5303301), wk =   0.0937500
        k(   25) = (  -0.1767767  -0.5303301   0.7071068), wk =   0.0937500
        k(   26) = (  -0.0883883  -0.4419417   0.6187184), wk =   0.1875000
        k(   27) = (   0.0000000  -0.3535534   0.5303301), wk =   0.0937500
        k(   28) = (  -0.7071068   0.1767767  -0.0000000), wk =   0.0468750
        k(   29) = (  -0.7071068   0.3535534   0.0000000), wk =   0.0234375

                       cryst. coord.
        k(    1) = (   0.0000000   0.0000000   0.0000000), wk =   0.0039062
        k(    2) = (   0.0000000   0.0000000   0.1250000), wk =   0.0312500
        k(    3) = (   0.0000000   0.0000000   0.2500000), wk =   0.0312500
        k(    4) = (  -0.0000000  -0.0000000   0.3750000), wk =   0.0312500
        k(    5) = (  -0.0000000  -0.0000000  -0.5000000), wk =   0.0156250
        k(    6) = (   0.0000000   0.1250000   0.1250000), wk =   0.0234375
        k(    7) = (   0.0000000   0.1250000   0.2500000), wk =   0.0937500
        k(    8) = (   0.0000000   0.1250000   0.3750000), wk =   0.0937500
        k(    9) = (  -0.0000000   0.1250000  -0.5000000), wk =   0.0937500
        k(   10) = (  -0.0000000   0.1250000  -0.3750000), wk =   0.0937500
        k(   11) = (   0.0000000   0.1250000  -0.2500000), wk =   0.0937500
        k(   12) = (  -0.0000000   0.1250000  -0.1250000), wk =   0.0468750
        k(   13) = (   0.0000000   0.2500000   0.2500000), wk =   0.0234375
        k(   14) = (   0.0000000   0.2500000   0.3750000), wk =   0.0937500
        k(   15) = (   0.0000000   0.2500000  -0.5000000), wk =   0.0937500
        k(   16) = (  -0.0000000   0.2500000  -0.3750000), wk =   0.0937500
        k(   17) = (  -0.0000000   0.2500000  -0.2500000), wk =   0.0468750
        k(   18) = (   0.0000000   0.3750000   0.3750000), wk =   0.0234375
        k(   19) = (  -0.0000000   0.3750000  -0.5000000), wk =   0.0937500
        k(   20) = (   0.0000000   0.3750000  -0.3750000), wk =   0.0468750
        k(   21) = (   0.0000000  -0.5000000  -0.5000000), wk =   0.0117188
        k(   22) = (   0.1250000   0.2500000   0.3750000), wk =   0.0937500
        k(   23) = (   0.1250000   0.2500000  -0.5000000), wk =   0.1875000
        k(   24) = (   0.1250000   0.2500000  -0.3750000), wk =   0.0937500
        k(   25) = (   0.1250000   0.3750000  -0.5000000), wk =   0.0937500
        k(   26) = (   0.1250000   0.3750000  -0.3750000), wk =   0.1875000
        k(   27) = (   0.1250000   0.3750000  -0.2500000), wk =   0.0937500
        k(   28) = (   0.1250000  -0.5000000  -0.3750000), wk =   0.0468750
        k(   29) = (   0.2500000  -0.5000000  -0.2500000), wk =   0.0234375

     Dense  grid:    37309 G-vectors     FFT dimensions: (  48,  48,  48)

     Dynamical RAM for                 wfc:       0.02 MB

     Dynamical RAM for     wfc (w. buffer):       0.36 MB

     Dynamical RAM for           str. fact:       0.04 MB

     Dynamical RAM for           local pot:       0.00 MB

     Dynamical RAM for          nlocal pot:       0.16 MB

     Dynamical RAM for                qrad:       1.61 MB

     Dynamical RAM for          rho,v,vnew:       0.26 MB

     Dynamical RAM for               rhoin:       0.09 MB

     Dynamical RAM for            rho*nmix:       0.57 MB

     Dynamical RAM for           G-vectors:       0.15 MB

     Dynamical RAM for          h,s,v(r/c):       0.00 MB

     Dynamical RAM for          <psi|beta>:       0.00 MB

     Dynamical RAM for                 psi:       0.04 MB

     Dynamical RAM for                hpsi:       0.04 MB

     Dynamical RAM for                spsi:       0.04 MB

     Dynamical RAM for      wfcinit/wfcrot:       0.05 MB

     Dynamical RAM for           addusdens:       3.36 MB

     Estimated static dynamical RAM per process >       3.00 MB

     Estimated max dynamical RAM per process >       6.93 MB

     Estimated total dynamical RAM >     212.58 MB

     Initial potential from superposition of free atoms

     starting charge       7.9989, renormalised to       8.0000
     Starting wfcs are    8 randomized atomic wfcs
     Checking if some PAW data can be deallocated... 

     total cpu time spent up to now is       15.6 secs

     per-process dynamical memory:    12.3 Mb

     Self-consistent Calculation

     iteration #  1     ecut=   100.00 Ry     beta= 0.70
     Davidson diagonalization with overlap

---- Real-time Memory Report at c_bands before calling an iterative solver
            49 MiB given to the printing process from OS
            11 MiB allocation reported by mallinfo(arena+hblkhd)
        245962 MiB available memory on the node where the printing process lives
------------------
     ethr =  1.00E-02,  avg # of iterations =  2.6

     Threshold (ethr) on eigenvalues was too large:
     Diagonalizing with lowered threshold

     Davidson diagonalization with overlap

---- Real-time Memory Report at c_bands before calling an iterative solver
            53 MiB given to the printing process from OS
            15 MiB allocation reported by mallinfo(arena+hblkhd)
        245827 MiB available memory on the node where the printing process lives
------------------
     ethr =  6.01E-04,  avg # of iterations =  1.6

     total cpu time spent up to now is       16.1 secs

     total energy              =     -93.45095143 Ry
     estimated scf accuracy    <       0.05253048 Ry

     iteration #  2     ecut=   100.00 Ry     beta= 0.70
     Davidson diagonalization with overlap

---- Real-time Memory Report at c_bands before calling an iterative solver
            55 MiB given to the printing process from OS
            17 MiB allocation reported by mallinfo(arena+hblkhd)
        245786 MiB available memory on the node where the printing process lives
------------------
     ethr =  6.57E-04,  avg # of iterations =  1.0

     total cpu time spent up to now is       16.3 secs

     total energy              =     -93.45288316 Ry
     estimated scf accuracy    <       0.00264007 Ry

     iteration #  3     ecut=   100.00 Ry     beta= 0.70
     Davidson diagonalization with overlap

---- Real-time Memory Report at c_bands before calling an iterative solver
            56 MiB given to the printing process from OS
            17 MiB allocation reported by mallinfo(arena+hblkhd)
        245785 MiB available memory on the node where the printing process lives
------------------
     ethr =  3.30E-05,  avg # of iterations =  4.2

     total cpu time spent up to now is       16.6 secs

     total energy              =     -93.45336905 Ry
     estimated scf accuracy    <       0.00006589 Ry

     iteration #  4     ecut=   100.00 Ry     beta= 0.70
     Davidson diagonalization with overlap

---- Real-time Memory Report at c_bands before calling an iterative solver
            56 MiB given to the printing process from OS
            17 MiB allocation reported by mallinfo(arena+hblkhd)
        245783 MiB available memory on the node where the printing process lives
------------------
     ethr =  8.24E-07,  avg # of iterations =  4.6

     total cpu time spent up to now is       17.0 secs

     total energy              =     -93.45340818 Ry
     estimated scf accuracy    <       0.00000137 Ry

     iteration #  5     ecut=   100.00 Ry     beta= 0.70
     Davidson diagonalization with overlap

---- Real-time Memory Report at c_bands before calling an iterative solver
            56 MiB given to the printing process from OS
            17 MiB allocation reported by mallinfo(arena+hblkhd)
        245779 MiB available memory on the node where the printing process lives
------------------
     ethr =  1.71E-08,  avg # of iterations =  4.7

     total cpu time spent up to now is       17.3 secs

     total energy              =     -93.45340972 Ry
     estimated scf accuracy    <       0.00000021 Ry

     iteration #  6     ecut=   100.00 Ry     beta= 0.70
     Davidson diagonalization with overlap

---- Real-time Memory Report at c_bands before calling an iterative solver
            57 MiB given to the printing process from OS
            17 MiB allocation reported by mallinfo(arena+hblkhd)
        245775 MiB available memory on the node where the printing process lives
------------------
     ethr =  2.65E-09,  avg # of iterations =  2.7

     total cpu time spent up to now is       17.6 secs

     total energy              =     -93.45340976 Ry
     estimated scf accuracy    <          3.6E-09 Ry

     iteration #  7     ecut=   100.00 Ry     beta= 0.70
     Davidson diagonalization with overlap

---- Real-time Memory Report at c_bands before calling an iterative solver
            57 MiB given to the printing process from OS
            17 MiB allocation reported by mallinfo(arena+hblkhd)
        245773 MiB available memory on the node where the printing process lives
------------------
     ethr =  4.54E-11,  avg # of iterations =  5.0

     total cpu time spent up to now is       17.9 secs

     total energy              =     -93.45340976 Ry
     estimated scf accuracy    <          7.7E-10 Ry

     iteration #  8     ecut=   100.00 Ry     beta= 0.70
     Davidson diagonalization with overlap

---- Real-time Memory Report at c_bands before calling an iterative solver
            57 MiB given to the printing process from OS
            17 MiB allocation reported by mallinfo(arena+hblkhd)
        245770 MiB available memory on the node where the printing process lives
------------------
     ethr =  9.59E-12,  avg # of iterations =  2.2

     total cpu time spent up to now is       18.2 secs

     total energy              =     -93.45340976 Ry
     estimated scf accuracy    <          4.0E-12 Ry

     iteration #  9     ecut=   100.00 Ry     beta= 0.70
     Davidson diagonalization with overlap

---- Real-time Memory Report at c_bands before calling an iterative solver
            58 MiB given to the printing process from OS
            17 MiB allocation reported by mallinfo(arena+hblkhd)
        245768 MiB available memory on the node where the printing process lives
------------------
     ethr =  1.00E-13,  avg # of iterations =  5.1

     total cpu time spent up to now is       18.5 secs

     total energy              =     -93.45340976 Ry
     estimated scf accuracy    <          3.5E-13 Ry

     iteration # 10     ecut=   100.00 Ry     beta= 0.70
     Davidson diagonalization with overlap

---- Real-time Memory Report at c_bands before calling an iterative solver
            58 MiB given to the printing process from OS
            17 MiB allocation reported by mallinfo(arena+hblkhd)
        245766 MiB available memory on the node where the printing process lives
------------------
     ethr =  1.00E-13,  avg # of iterations =  1.0

     total cpu time spent up to now is       18.8 secs

     total energy              =     -93.45340976 Ry
     estimated scf accuracy    <          8.2E-14 Ry

     iteration # 11     ecut=   100.00 Ry     beta= 0.70
     Davidson diagonalization with overlap

---- Real-time Memory Report at c_bands before calling an iterative solver
            58 MiB given to the printing process from OS
            17 MiB allocation reported by mallinfo(arena+hblkhd)
        245765 MiB available memory on the node where the printing process lives
------------------
     ethr =  1.00E-13,  avg # of iterations =  1.0

     total cpu time spent up to now is       19.0 secs

     total energy              =     -93.45340976 Ry
     estimated scf accuracy    <          1.3E-15 Ry

     iteration # 12     ecut=   100.00 Ry     beta= 0.70
     Davidson diagonalization with overlap

---- Real-time Memory Report at c_bands before calling an iterative solver
            58 MiB given to the printing process from OS
            17 MiB allocation reported by mallinfo(arena+hblkhd)
        245765 MiB available memory on the node where the printing process lives
------------------
     ethr =  1.00E-13,  avg # of iterations =  1.0

     total cpu time spent up to now is       19.2 secs

     total energy              =     -93.45340976 Ry
     estimated scf accuracy    <          2.4E-16 Ry

     iteration # 13     ecut=   100.00 Ry     beta= 0.70
     Davidson diagonalization with overlap

---- Real-time Memory Report at c_bands before calling an iterative solver
            58 MiB given to the printing process from OS
            17 MiB allocation reported by mallinfo(arena+hblkhd)
        245764 MiB available memory on the node where the printing process lives
------------------
     ethr =  1.00E-13,  avg # of iterations =  1.0

     total cpu time spent up to now is       19.5 secs

     End of self-consistent calculation

          k = 0.0000 0.0000 0.0000 (  4645 PWs)   bands (ev):

    -5.8349   5.9834   5.9834   5.9834   8.5368

     occupation numbers 
     1.0000   1.0000   1.0000   1.0000   0.0000

          k = 0.0884 0.0884-0.0884 (  4678 PWs)   bands (ev):

    -5.6346   4.3897   5.7003   5.7003   8.4207

     occupation numbers 
     1.0000   1.0000   1.0000   1.0000   0.0000

          k = 0.1768 0.1768-0.1768 (  4669 PWs)   bands (ev):

    -5.0505   2.0930   5.2369   5.2369   7.9369

     occupation numbers 
     1.0000   1.0000   1.0000   1.0000   0.0000

          k = 0.2652 0.2652-0.2652 (  4678 PWs)   bands (ev):

    -4.1764   0.1084   4.9136   4.9136   7.5724

     occupation numbers 
     1.0000   1.0000   1.0000   1.0000   0.0000

          k =-0.3536-0.3536 0.3536 (  4626 PWs)   bands (ev):

    -3.5575  -0.8895   4.8028   4.8028   7.4443

     occupation numbers 
     1.0000   1.0000   1.0000   1.0000   0.0000

          k = 0.1768 0.0000 0.0000 (  4673 PWs)   bands (ev):

    -5.5670   4.6277   5.1955   5.1955   7.9966

     occupation numbers 
     1.0000   1.0000   1.0000   1.0000   0.0000

          k = 0.2652 0.0884-0.0884 (  4672 PWs)   bands (ev):

    -5.1072   2.7733   4.6926   4.7560   8.1270

     occupation numbers 
     1.0000   1.0000   1.0000   1.0000   0.0000

          k = 0.3536 0.1768-0.1768 (  4677 PWs)   bands (ev):

    -4.3090   0.7511   4.1722   4.4273   8.2096

     occupation numbers 
     1.0000   1.0000   1.0000   1.0000   0.0000

          k =-0.2652-0.4419 0.4419 (  4650 PWs)   bands (ev):

    -3.4705  -0.6791   3.7349   4.4492   8.1437

     occupation numbers 
     1.0000   1.0000   1.0000   1.0000   0.0000

          k =-0.1768-0.3536 0.3536 (  4662 PWs)   bands (ev):

    -3.7077  -0.3180   3.5598   4.7387   8.2920

     occupation numbers 
     1.0000   1.0000   1.0000   1.0000   0.0000

          k =-0.0884-0.2652 0.2652 (  4669 PWs)   bands (ev):

    -4.6089   1.3975   3.7143   5.2204   8.6341

     occupation numbers 
     1.0000   1.0000   1.0000   1.0000   0.0000

          k = 0.0000-0.1768 0.1768 (  4683 PWs)   bands (ev):

    -5.3047   3.3048   4.3924   5.6928   8.9451

     occupation numbers 
     1.0000   1.0000   1.0000   1.0000   0.0000

          k = 0.3536 0.0000 0.0000 (  4664 PWs)   bands (ev):

    -4.7730   2.4598   4.1324   4.1324   7.1340

     occupation numbers 
     1.0000   1.0000   1.0000   1.0000   0.0000

          k = 0.4419 0.0884-0.0884 (  4666 PWs)   bands (ev):

    -4.0768   1.0628   3.3662   3.8190   7.3541

     occupation numbers 
     1.0000   1.0000   1.0000   1.0000   0.0000

          k =-0.1768-0.5303 0.5303 (  4645 PWs)   bands (ev):

    -3.1723  -0.3452   2.5181   3.8209   7.5253

     occupation numbers 
     1.0000   1.0000   1.0000   1.0000   0.0000

          k =-0.0884-0.4419 0.4419 (  4653 PWs)   bands (ev):

    -2.9752  -0.5951   2.0707   4.1323   7.8389

     occupation numbers 
     1.0000   1.0000   1.0000   1.0000   0.0000

          k = 0.0000-0.3536 0.3536 (  4672 PWs)   bands (ev):

    -3.8319   0.5388   2.3116   4.6789   8.4193

     occupation numbers 
     1.0000   1.0000   1.0000   1.0000   0.0000

          k = 0.5303-0.0000 0.0000 (  4672 PWs)   bands (ev):

    -3.4850   0.2657   3.4277   3.4277   6.6338

     occupation numbers 
     1.0000   1.0000   1.0000   1.0000   0.0000

          k =-0.0884-0.6187 0.6187 (  4669 PWs)   bands (ev):

    -2.6060  -0.8007   2.6224   3.3525   6.9149

     occupation numbers 
     1.0000   1.0000   1.0000   1.0000   0.0000

          k = 0.0000-0.5303 0.5303 (  4660 PWs)   bands (ev):

    -2.1830  -1.1858   1.7803   3.6048   7.2180

     occupation numbers 
     1.0000   1.0000   1.0000   1.0000   0.0000

          k =-0.7071 0.0000 0.0000 (  4720 PWs)   bands (ev):

    -1.7681  -1.7681   3.1861   3.1861   6.7357

     occupation numbers 
     1.0000   1.0000   1.0000   1.0000   0.0000

          k = 0.3536 0.1768 0.0000 (  4681 PWs)   bands (ev):

    -4.5308   1.7101   3.3288   4.5811   8.4258

     occupation numbers 
     1.0000   1.0000   1.0000   1.0000   0.0000

          k =-0.2652-0.4419 0.6187 (  4660 PWs)   bands (ev):

    -3.6617   0.1906   2.7244   4.0935   8.8471

     occupation numbers 
     1.0000   1.0000   1.0000   1.0000   0.0000

          k =-0.1768-0.3536 0.5303 (  4638 PWs)   bands (ev):

    -3.0278  -0.7287   2.5929   3.8704   9.0043

     occupation numbers 
     1.0000   1.0000   1.0000   1.0000   0.0000

          k =-0.1768-0.5303 0.7071 (  4641 PWs)   bands (ev):

    -3.2918   0.0505   2.6928   3.2848   7.9393

     occupation numbers 
     1.0000   1.0000   1.0000   1.0000   0.0000

          k =-0.0884-0.4419 0.6187 (  4656 PWs)   bands (ev):

    -2.4386  -0.8979   2.0127   3.0889   8.3791

     occupation numbers 
     1.0000   1.0000   1.0000   1.0000   0.0000

          k = 0.0000-0.3536 0.5303 (  4659 PWs)   bands (ev):

    -2.7821  -0.5401   1.8503   3.4556   8.8483

     occupation numbers 
     1.0000   1.0000   1.0000   1.0000   0.0000

          k =-0.7071 0.1768-0.0000 (  4668 PWs)   bands (ev):

    -1.6944  -1.6944   2.6414   2.6414   7.9702

     occupation numbers 
     1.0000   1.0000   1.0000   1.0000   0.0000

          k =-0.7071 0.3536 0.0000 (  4648 PWs)   bands (ev):

    -1.6137  -1.6137   2.2198   2.2198  10.2579

     occupation numbers 
     1.0000   1.0000   1.0000   1.0000   0.0000

     highest occupied, lowest unoccupied level (ev):     5.9834    6.6338

!    total energy              =     -93.45340976 Ry
     total all-electron energy =     -1160.145140 Ry
     estimated scf accuracy    <          4.5E-17 Ry

     The total energy is the sum of the following terms:
     one-electron contribution =       5.57143936 Ry
     hartree contribution      =       1.12010728 Ry
     xc contribution           =     -12.28329008 Ry
     ewald contribution        =     -16.67835820 Ry
     one-center paw contrib.   =     -71.18330813 Ry
      -> PAW hartree energy AE =       2.91658719 Ry
      -> PAW hartree energy PS =      -2.90531834 Ry
      -> PAW xc energy AE      =     -40.85079563 Ry
      -> PAW xc energy PS      =       5.24787271 Ry
      -> total E_H with PAW    =       1.13137613 Ry
      -> total E_XC with PAW   =     -47.88621300 Ry

     convergence has been achieved in  13 iterations

     Writing all to output data dir tmp/xx.save/ :
     XML data file, charge density, pseudopotentials, collected wavefunctions

     init_run     :      0.66s CPU      0.86s WALL (       1 calls)
     electrons    :      3.64s CPU      3.97s WALL (       1 calls)

     Called by init_run:
     wfcinit      :      0.07s CPU      0.11s WALL (       1 calls)
     wfcinit:atom :      0.00s CPU      0.00s WALL (      15 calls)
     wfcinit:wfcr :      0.06s CPU      0.10s WALL (      15 calls)
     potinit      :      0.09s CPU      0.11s WALL (       1 calls)
     hinit0       :      0.45s CPU      0.52s WALL (       1 calls)

     Called by electrons:
     c_bands      :      1.67s CPU      1.86s WALL (      14 calls)
     sum_band     :      0.47s CPU      0.49s WALL (      14 calls)
     v_of_rho     :      0.10s CPU      0.11s WALL (      14 calls)
     v_h          :      0.01s CPU      0.01s WALL (      14 calls)
     v_xc         :      0.09s CPU      0.10s WALL (      14 calls)
     newd         :      0.17s CPU      0.19s WALL (      14 calls)
     PAW_pot      :      1.23s CPU      1.25s WALL (      14 calls)
     mix_rho      :      0.02s CPU      0.02s WALL (      14 calls)

     Called by c_bands:
     init_us_2    :      0.08s CPU      0.09s WALL (     435 calls)
     cegterg      :      1.45s CPU      1.54s WALL (     210 calls)

     Called by sum_band:
     sum_band:wei :      0.00s CPU      0.00s WALL (      14 calls)
     sum_band:loo :      0.25s CPU      0.26s WALL (      14 calls)
     sum_band:buf :      0.00s CPU      0.00s WALL (     210 calls)
     sum_band:ini :      0.04s CPU      0.04s WALL (     210 calls)
     sum_band:cal :      0.03s CPU      0.03s WALL (     210 calls)
     sum_band:bec :      0.00s CPU      0.00s WALL (     210 calls)
     addusdens    :      0.18s CPU      0.19s WALL (      14 calls)
                                        0.00s GPU  (      14 calls)
     addusd:skk   :      0.00s CPU      0.00s WALL (      14 calls)
                                        0.00s GPU  (      14 calls)

     Called by *egterg:
     cdiaghg      :      0.07s CPU      0.07s WALL (     780 calls)
     cegterg:over :      0.05s CPU      0.05s WALL (     585 calls)
     cegterg:upda :      0.01s CPU      0.02s WALL (     585 calls)
     cegterg:last :      0.02s CPU      0.03s WALL (     463 calls)
     h_psi        :      1.23s CPU      1.35s WALL (     810 calls)
     s_psi        :      0.05s CPU      0.06s WALL (     810 calls)
     g_psi        :      0.01s CPU      0.01s WALL (     585 calls)

     Called by h_psi:
     h_psi:calbec :      0.08s CPU      0.12s WALL (     810 calls)
     vloc_psi     :      1.08s CPU      1.15s WALL (     810 calls)
                                        0.00s GPU  (     810 calls)
     add_vuspsi   :      0.06s CPU      0.06s WALL (     810 calls)

     General routines
     calbec       :      0.10s CPU      0.15s WALL (    1020 calls)
     fft          :      0.43s CPU      0.50s WALL (     155 calls)
     ffts         :      0.00s CPU      0.00s WALL (      14 calls)
     fftw         :      1.14s CPU      1.22s WALL (    7298 calls)

     Parallel routines

     PAW routines
     PAW_pot      :      1.23s CPU      1.25s WALL (      14 calls)
     PAW_symme    :      0.02s CPU      0.02s WALL (      28 calls)

     PWSCF        :      7.82s CPU     19.72s WALL


   This run was terminated on:   3: 5:26   5Jun2026            

=------------------------------------------------------------------------------=
   JOB DONE.
=------------------------------------------------------------------------------=
